[Molden Format]
[Title]
                                                                                
[Atoms] AU
 o     1    8 0.10000000000000E-13 -.15290325402501E+00 0.00000000000000E+00
 h     2    1 0.14149695076483E+01 -.12463566660075E+01 0.00000000000000E+00
 h     3    1 -.14149695076483E+01 -.12463566660075E+01 0.00000000000000E+00
[GTO]
    1 0
 s    8 1.00
 0.11720000000000E+05 0.70964594651845E-03
 0.17590000000000E+04 0.54672722921914E-02
 0.40080000000000E+03 0.27823118610189E-01
 0.11370000000000E+03 0.10474773971146E+00
 0.37030000000000E+02 0.28292084635691E+00
 0.13270000000000E+02 0.44849523869833E+00
 0.50250000000000E+01 0.27081688521277E+00
 0.10130000000000E+01 0.15450291607440E-01
 s    8 1.00
 0.11720000000000E+05 -.31444341168873E-03
 0.17590000000000E+04 -.24821376810179E-02
 0.40080000000000E+03 -.12316355381583E-01
 0.11370000000000E+03 -.50538917343672E-01
 0.37030000000000E+02 -.13938490331632E+00
 0.13270000000000E+02 -.32507749481778E+00
 0.50250000000000E+01 -.22984830758785E+00
 0.10130000000000E+01 0.10953793467883E+01
 s    1 1.00
 0.30230000000000E+00 0.10000000000000E+01
 p    3 1.00
 0.17700000000000E+02 0.62679166281506E-01
 0.38540000000000E+01 0.33353656587936E+00
 0.10460000000000E+01 0.74123964163973E+00
 p    1 1.00
 0.27530000000000E+00 0.10000000000000E+01
 d    1 1.00
 0.11850000000000E+01 0.10000000000000E+01
 
    2 0
 s    3 1.00
 0.13010000000000E+02 0.33498726389998E-01
 0.19620000000000E+01 0.23480080117413E+00
 0.44460000000000E+00 0.81368295788290E+00
 s    1 1.00
 0.12200000000000E+00 0.10000000000000E+01
 p    1 1.00
 0.72700000000000E+00 0.10000000000000E+01
 
    3 0
 s    3 1.00
 0.13010000000000E+02 0.33498726389998E-01
 0.19620000000000E+01 0.23480080117413E+00
 0.44460000000000E+00 0.81368295788290E+00
 s    1 1.00
 0.12200000000000E+00 0.10000000000000E+01
 p    1 1.00
 0.72700000000000E+00 0.10000000000000E+01
 
[MO]
 Sym=    1a   
 Ene= -.20548434855495E+02
 Spin= Alpha
 Occup= 2.000000
    1 0.10009254296256E+01
    2 0.12468443651407E-02
    3 -.25955784842570E-02
    4 0.36757942341094E-15
    5 -.17976716300498E-02
    6 0.23175037840876E-16
    7 -.11579207272919E-15
    8 0.44793896288922E-03
    9 0.36521733431469E-16
   10 0.77393953580243E-04
   11 0.89889826025861E-05
   12 -.86382936182829E-04
   13 -.41395216388080E-17
   14 0.37301821774279E-16
   15 -.17754084363744E-15
   16 -.30604071380502E-03
   17 0.41896121011116E-03
   18 0.60747276065342E-03
   19 -.50572259368641E-03
   20 -.91896258031828E-16
   21 -.30604071380552E-03
   22 0.41896121011223E-03
   23 -.60747276065327E-03
   24 -.50572259368687E-03
   25 0.45087279294021E-18
 Sym=    2a   
 Ene= -.13422713177954E+01
 Spin= Alpha
 Occup= 2.000000
    1 -.86929241578430E-02
    2 0.44157364894003E+00
    3 0.36790566745108E+00
    4 0.24415961873830E-14
    5 -.80868611033597E-01
    6 0.43027492505373E-15
    7 -.38463698372182E-14
    8 0.14788719550984E-01
    9 0.37361154279141E-15
   10 0.12109962946202E-02
   11 0.71969718477606E-03
   12 -.19306934793962E-02
   13 0.21053628488305E-15
   14 0.40212462683476E-16
   15 -.13078524634314E-16
   16 0.19817621086748E+00
   17 0.97741264185168E-02
   18 -.38053356538131E-01
   19 0.20719801644156E-01
   20 0.91196490877717E-16
   21 0.19817621086747E+00
   22 0.97741264185120E-02
   23 0.38053356538129E-01
   24 0.20719801644153E-01
   25 -.13601503609639E-15
 Sym=    3a   
 Ene= -.70541054206414E+00
 Spin= Alpha
 Occup= 2.000000
    1 -.97152730874290E-15
    2 -.62119905573643E-14
    3 -.69734799532095E-14
    4 0.49144343363496E+00
    5 -.79824859287696E-14
    6 -.17948943858305E-16
    7 0.21837505912458E+00
    8 -.40774107790760E-14
    9 -.37802915346493E-16
   10 0.29595760826708E-15
   11 0.14902362347004E-15
   12 -.44498123173711E-15
   13 -.15741488647782E-01
   14 0.22359029688581E-16
   15 0.10050853115692E-15
   16 0.33032003171186E+00
   17 0.87564285205779E-01
   18 -.23266114750533E-01
   19 0.32800238788898E-01
   20 -.14578415823135E-15
   21 -.33032003171186E+00
   22 -.87564285205784E-01
   23 -.23266114750535E-01
   24 -.32800238788899E-01
   25 0.19546794258580E-15
 Sym=    4a   
 Ene= -.56841175437359E+00
 Spin= Alpha
 Occup= 2.000000
    1 -.21303738545447E-02
    2 0.15119035437884E+00
    3 0.35327560955803E+00
    4 0.58303012595902E-14
    5 0.54668913755051E+00
    6 -.44633598822690E-14
    7 0.31776968631820E-14
    8 0.36441993393429E+00
    9 -.32433124253971E-14
   10 0.28901704861570E-02
   11 -.10396612886337E-01
   12 0.75064424001800E-02
   13 -.38966917274478E-16
   14 -.10671147229322E-15
   15 0.31984510731611E-16
   16 -.20603978179278E+00
   17 -.37949862512381E-01
   18 0.31775818219417E-01
   19 0.79695313593636E-02
   20 -.25146215756696E-15
   21 -.20603978179278E+00
   22 -.37949862512393E-01
   23 -.31775818219419E-01
   24 0.79695313593621E-02
   25 -.23846790112740E-15
 Sym=    5a   
 Ene= -.49392642618232E+00
 Spin= Alpha
 Occup= 2.000000
    1 -.11719209045032E-14
    2 0.24325159941885E-14
    3 0.23410093308307E-13
    4 0.84078210880136E-17
    5 -.57245874707235E-15
    6 0.63078035532367E+00
    7 0.92127538508114E-17
    8 -.47193152163949E-14
    9 0.49514235507650E+00
   10 0.84709789816102E-16
   11 0.23018686201677E-16
   12 -.10772847601778E-15
   13 -.35620217792588E-17
   14 -.22434564674475E-15
   15 -.10595869075465E-01
   16 -.29945664004050E-14
   17 -.17789589246142E-13
   18 0.43712321089184E-15
   19 -.11385478063813E-15
   20 0.31519444761913E-01
   21 -.31029866176535E-14
   22 -.17622730531797E-13
   23 -.42446515052807E-15
   24 0.18648277366751E-16
   25 0.31519444761912E-01
 Sym=    6a   
 Ene= 0.18741027725688E+00
 Spin= Alpha
 Occup= 0.000000
    1 0.52085399443601E-01
    2 -.72505617592182E-01
    3 -.10136139150312E+01
    4 0.97994006313608E-14
    5 0.18637510339062E+00
    6 0.12934098236883E-13
    7 0.22487478605318E-13
    8 0.33189939460413E+00
    9 0.10574874309555E-13
   10 -.31253502617676E-02
   11 -.43218097958273E-02
   12 0.74471600575949E-02
   13 -.27479242239585E-15
   14 0.22033947448145E-15
   15 0.10816665110908E-15
   16 0.56741421380773E-01
   17 0.83399408667821E+00
   18 -.18553179538554E-01
   19 0.16832010713459E-01
   20 0.68868521996279E-15
   21 0.56741421380776E-01
   22 0.83399408667828E+00
   23 0.18553179538556E-01
   24 0.16832010713459E-01
   25 0.88817841970013E-15
 Sym=    7a   
 Ene= 0.25781033551296E+00
 Spin= Alpha
 Occup= 0.000000
    1 -.48918101580703E-14
    2 -.30164170295523E-14
    3 0.51656375880809E-13
    4 0.27986454112804E+00
    5 -.22030940165221E-14
    6 0.21091210302134E-17
    7 0.67134884947680E+00
    8 -.12638204609791E-13
    9 -.10350336250047E-16
   10 -.38188995965384E-15
   11 0.68064338288566E-15
   12 -.29875342323181E-15
   13 -.12758676300110E-01
   14 0.54284984194795E-16
   15 0.42255206622780E-16
   16 -.23441373016944E-01
   17 -.14651776755566E+01
   18 0.21621780064655E-01
   19 -.18219895792564E-01
   20 -.82792652525534E-17
   21 0.23441373016932E-01
   22 0.14651776755566E+01
   23 0.21621780064654E-01
   24 0.18219895792564E-01
   25 0.15285094430683E-17
 Sym=    8a   
 Ene= 0.79764484099400E+00
 Spin= Alpha
 Occup= 0.000000
    1 -.41562496997108E-14
    2 -.99106761119402E-14
    3 0.22126558895739E-13
    4 0.26453870870480E+00
    5 0.14534458535181E-13
    6 -.74146232569541E-16
    7 0.48247002193425E+00
    8 -.12619265882111E-13
    9 0.11303185765344E-15
   10 0.21447073815190E-14
   11 -.45839084738169E-15
   12 -.16863165341373E-14
   13 0.65045094907073E-01
   14 0.20864629900998E-16
   15 0.50930226389195E-16
   16 -.94597925992260E+00
   17 0.66796533295808E+00
   18 -.77054882029600E-01
   19 0.15645334629194E+00
   20 -.11784667399902E-15
   21 0.94597925992265E+00
   22 -.66796533295813E+00
   23 -.77054882029611E-01
   24 -.15645334629194E+00
   25 0.42071961053999E-16
 Sym=    9a   
 Ene= 0.86440087163826E+00
 Spin= Alpha
 Occup= 0.000000
    1 -.62150588101764E-01
    2 -.25265216952001E+00
    3 0.31915878710889E+00
    4 0.54412824784377E-14
    5 0.32978414490147E+00
    6 -.59327542878407E-15
    7 -.60211149861291E-13
    8 -.19109143650827E-01
    9 0.15751289161869E-14
   10 0.53985319696129E-01
   11 0.68168452363702E-03
   12 -.54667004219766E-01
   13 -.16465295869541E-14
   14 0.29044748908918E-16
   15 -.24537805112707E-16
   16 0.77697002754468E+00
   17 -.54015459046509E+00
   18 0.30537015387651E+00
   19 -.60272258691461E-01
   20 -.11275702593849E-16
   21 0.77697002754460E+00
   22 -.54015459046508E+00
   23 -.30537015387651E+00
   24 -.60272258691455E-01
   25 0.17000290064573E-15
 Sym=   10a   
 Ene= 0.11626405798091E+01
 Spin= Alpha
 Occup= 0.000000
    1 -.31910990979471E-02
    2 -.11541194745293E+00
    3 -.77928159424987E+00
    4 0.14993608419376E-13
    5 -.75106512440043E+00
    6 0.18379395227974E-14
    7 -.38994899902411E-13
    8 0.12966000563978E+01
    9 -.74419637119405E-15
   10 0.63771146898985E-02
   11 -.65873359897245E-02
   12 0.21022129982597E-03
   13 0.16920763211232E-14
   14 0.47433079597461E-14
   15 0.41063265698816E-15
   16 0.56710067226861E+00
   17 0.11339859490777E+00
   18 -.88065917737193E-01
   19 0.24271660373720E+00
   20 0.41078251911131E-13
   21 0.56710067226859E+00
   22 0.11339859490772E+00
   23 0.88065917737183E-01
   24 0.24271660373719E+00
   25 -.45380366131553E-13
 Sym=   11a   
 Ene= 0.12003977838706E+01
 Spin= Alpha
 Occup= 0.000000
    1 0.21949672981969E-15
    2 0.50090140368830E-15
    3 -.30392355299114E-14
    4 0.15380011886029E-15
    5 -.21684043449710E-14
    6 -.96745953279032E+00
    7 -.54938867308032E-15
    8 0.26471880243406E-14
    9 0.10345012389962E+01
   10 -.98831903700144E-17
   11 -.44387924509365E-16
   12 0.54271114879380E-16
   13 -.21210749286079E-17
   14 -.63347598913415E-15
   15 0.24574468696375E-02
   16 0.47011006198971E-15
   17 0.14235574524735E-14
   18 -.62883726004159E-15
   19 0.14432899320127E-14
   20 -.32983437494650E-02
   21 0.45102810375397E-16
   22 0.13027773304586E-14
   23 0.59761223747401E-15
   24 0.10976462794243E-14
   25 -.32983437494405E-02
 Sym=   12a   
 Ene= 0.12526108167981E+01
 Spin= Alpha
 Occup= 0.000000
    1 0.12834679949121E-14
    2 -.32523985814678E-14
    3 -.32497540463190E-14
    4 -.72920833475070E+00
    5 -.10485989199605E-13
    6 -.24895148065322E-15
    7 0.17766354471702E+01
    8 0.26486932179029E-13
    9 0.30591245741968E-15
   10 0.76848471588247E-15
   11 0.91307978538536E-15
   12 -.16815645012678E-14
   13 -.27675361902709E-01
   14 -.37378188211655E-16
   15 0.14957181574697E-16
   16 -.38614978172277E+00
   17 -.84334084382978E+00
   18 0.30076252603164E+00
   19 -.19195888290204E+00
   20 0.15262684857515E-15
   21 0.38614978172282E+00
   22 0.84334084382976E+00
   23 0.30076252603164E+00
   24 0.19195888290205E+00
   25 -.21731929163633E-15
 Sym=   13a   
 Ene= 0.14438263416808E+01
 Spin= Alpha
 Occup= 0.000000
    1 0.20162079526175E+00
    2 0.52875659792875E+00
    3 -.52513251392635E+00
    4 -.48832792212858E-14
    5 0.11985963274968E+00
    6 0.18613582897231E-14
    7 -.38882429308181E-14
    8 -.72901344127500E+00
    9 0.13822276656583E-13
   10 0.33386689895278E-01
   11 -.65862907246482E-01
   12 0.32476217351204E-01
   13 -.71985479935866E-16
   14 -.11156285039093E-14
   15 0.21953824002879E-14
   16 -.32857592827389E+00
   17 0.21492029126029E+00
   18 0.31989840342445E+00
   19 0.55434924435751E+00
   20 -.28005375796170E-13
   21 -.32857592827389E+00
   22 0.21492029126028E+00
   23 -.31989840342446E+00
   24 0.55434924435751E+00
   25 -.89650509238481E-14
 Sym=   14a   
 Ene= 0.14788747358891E+01
 Spin= Alpha
 Occup= 0.000000
    1 0.32066363453431E-14
    2 0.15008827514151E-13
    3 0.40852737859254E-13
    4 0.13792685057231E-15
    5 0.49601815710343E-13
    6 -.21599475680256E-13
    7 -.31528020149450E-15
    8 -.92047897082281E-13
    9 0.17895407378177E-13
   10 0.19396892518046E-15
   11 -.63089208764651E-15
   12 0.43692316246606E-15
   13 0.32786183282750E-16
   14 0.74786987861976E-01
   15 0.15974611899905E-14
   16 -.40148440128007E-13
   17 -.36177658091496E-14
   18 0.98046570862209E-14
   19 -.71991024253037E-14
   20 0.68662289659790E+00
   21 -.39938538587414E-13
   22 -.42943079647806E-14
   23 -.10040579478954E-13
   24 -.73222677920981E-14
   25 -.68662289659791E+00
 Sym=   15a   
 Ene= 0.16774669731025E+01
 Spin= Alpha
 Occup= 0.000000
    1 0.58707379235745E-14
    2 0.14639765094637E-13
    3 -.20140139556091E-13
    4 -.43687271909567E-16
    5 0.16514567491299E-14
    6 -.41997316501329E-01
    7 0.19147962947287E-15
    8 -.12352098510693E-13
    9 -.62649180613207E+00
   10 0.95095997159128E-15
   11 -.15624646097189E-14
   12 0.61150463812764E-15
   13 0.12850236079026E-16
   14 -.76759571177806E-15
   15 -.92288092661781E-01
   16 -.49040632665864E-14
   17 0.64925278694949E-14
   18 0.65420488037232E-14
   19 0.14302415588668E-13
   20 0.76953591128435E+00
   21 -.46195686165262E-14
   22 0.62859873556365E-14
   23 -.63872247334923E-14
   24 0.14270214784146E-13
   25 0.76953591128433E+00
 Sym=   16a   
 Ene= 0.18652665969991E+01
 Spin= Alpha
 Occup= 0.000000
    1 0.71881239570402E+00
    2 0.15801736996364E+01
    3 -.30625765322674E+01
    4 -.56679222371016E-14
    5 0.12953140761223E+00
    6 0.61409211049579E-15
    7 -.55901422508738E-13
    8 0.96864301352222E+00
    9 0.74766581814600E-15
   10 0.21069144848714E-01
   11 0.65493308781613E-01
   12 -.86562453630326E-01
   13 0.86174671243485E-15
   14 -.37557864968429E-15
   15 0.16400267702881E-15
   16 0.84524688851162E+00
   17 0.39167486447860E+00
   18 -.37469757372574E+00
   19 -.25511111556568E-01
   20 -.13780209612291E-14
   21 0.84524688851156E+00
   22 0.39167486447858E+00
   23 0.37469757372579E+00
   24 -.25511111556648E-01
   25 -.13162214373974E-14
 Sym=   17a   
 Ene= 0.19466138689332E+01
 Spin= Alpha
 Occup= 0.000000
    1 -.40278254064575E-13
    2 -.88134487293783E-13
    3 0.15694124280065E-12
    4 0.26105188015781E-02
    5 -.92613328225229E-14
    6 0.49482021617025E-16
    7 -.90493704255913E+00
    8 -.54520732729981E-13
    9 -.10372197681087E-15
   10 -.22244814334894E-14
   11 -.38109054565683E-14
   12 0.60353868900577E-14
   13 -.17610629641785E-01
   14 -.13461637393111E-15
   15 0.26815495302191E-16
   16 0.39045542387394E+00
   17 0.91869067801859E-01
   18 0.48222180799482E+00
   19 0.69279702662578E+00
   20 0.20945666954086E-15
   21 -.39045542387403E+00
   22 -.91869067801896E-01
   23 0.48222180799478E+00
   24 -.69279702662577E+00
   25 -.26702804042013E-15
 Sym=   18a   
 Ene= 0.24793600208933E+01
 Spin= Alpha
 Occup= 0.000000
    1 -.15141966925630E-12
    2 -.39928754321959E-12
    3 -.44518450810238E-12
    4 0.85342598528831E+00
    5 0.37081886255278E-12
    6 -.14543004385512E-16
    7 0.15341885093683E+00
    8 0.99637929823535E-13
    9 0.78894628074063E-16
   10 0.49783005266998E-13
   11 0.16717019469523E-13
   12 -.66500024736520E-13
   13 0.83797343689433E-01
   14 -.30558318070901E-15
   15 -.14823517577173E-15
   16 -.31424196901141E+00
   17 -.32835587870501E+00
   18 0.72983241506101E+00
   19 -.56091782065278E+00
   20 0.12355705543482E-15
   21 0.31424196901195E+00
   22 0.32835587870519E+00
   23 0.72983241506184E+00
   24 0.56091782065338E+00
   25 -.31985165042998E-15
 Sym=   19a   
 Ene= 0.25181787919040E+01
 Spin= Alpha
 Occup= 0.000000
    1 -.30291231284358E+00
    2 -.77500379326919E+00
    3 -.76945344655736E+00
    4 -.47896506800326E-12
    5 0.67666650744343E+00
    6 0.39422772812281E-15
    7 -.85674750851626E-13
    8 0.17077417159156E+00
    9 0.26246095564932E-15
   10 0.96906196921108E-01
   11 0.31557644251358E-01
   12 -.12846384117247E+00
   13 -.50608914838396E-13
   14 0.16905203788350E-14
   15 -.97592828551548E-15
   16 0.48769128057944E+00
   17 0.15362254052333E+00
   18 -.74539856406738E+00
   19 0.53782003585349E+00
   20 -.25405477277552E-14
   21 0.48769128057907E+00
   22 0.15362254052296E+00
   23 0.74539856406656E+00
   24 0.53782003585286E+00
   25 -.31442416231483E-16
 Sym=   20a   
 Ene= 0.32949204390109E+01
 Spin= Alpha
 Occup= 0.000000
    1 -.12979255257367E-15
    2 -.84971634763120E-15
    3 -.88255141042493E-14
    4 0.47260531517321E-15
    5 0.30676484030941E-14
    6 0.59955984295455E-02
    7 -.48316201914374E-15
    8 0.21646096373673E-14
    9 -.31953083422760E+00
   10 -.15605880593339E-14
   11 -.57526512497906E-15
   12 0.21358531843129E-14
   13 0.60405184099196E-16
   14 0.25062613679199E-13
   15 0.60396234028152E+00
   16 0.51155369003297E-14
   17 0.82430535921357E-15
   18 -.31672255963733E-14
   19 0.29123838757306E-14
   20 0.40686113315591E+00
   21 0.53762333127039E-14
   22 0.64926091846579E-15
   23 0.41374781205306E-14
   24 0.28335081676822E-14
   25 0.40686113315593E+00
 Sym=   21a   
 Ene= 0.33501799981363E+01
 Spin= Alpha
 Occup= 0.000000
    1 0.55985489681720E-15
    2 0.21170673721038E-14
    3 0.14928813393822E-13
    4 0.26580762093611E-15
    5 -.43243268124313E-14
    6 0.38574399641643E-14
    7 0.70964325029759E-15
    8 -.68044528345190E-14
    9 0.17652923089940E-13
   10 0.11093067361095E-14
   11 0.26020362871875E-14
   12 -.37113430232970E-14
   13 0.56380474364297E-16
   14 0.61817269544688E+00
   15 -.27980115001935E-13
   16 -.93574236900706E-14
   17 -.16633694205001E-14
   18 0.73253035581811E-14
   19 -.30649311213993E-14
   20 -.37896411976249E+00
   21 -.92310057167588E-14
   22 -.42164622487961E-15
   23 -.56917361448972E-14
   24 -.28891819492394E-14
   25 0.37896411976244E+00
 Sym=   22a   
 Ene= 0.35246612885417E+01
 Spin= Alpha
 Occup= 0.000000
    1 0.85046421183870E-01
    2 0.15443629870601E+00
    3 -.59352560692724E+00
    4 -.40039586229890E-15
    5 0.30413863385805E-01
    6 -.62437421221622E-16
    7 0.14639616016839E-13
    8 0.55757234759216E+00
    9 0.13054041807042E-15
   10 0.39807571141177E+00
   11 -.63048363208523E+00
   12 0.23240792067345E+00
   13 -.29341064814409E-14
   14 0.24399055105439E-14
   15 -.36654233794778E-15
   16 0.32674889630088E+00
   17 0.40774348732824E-01
   18 -.36199879319850E+00
   19 -.31786683178794E+00
   20 -.14719374058576E-14
   21 0.32674889630089E+00
   22 0.40774348732833E-01
   23 0.36199879319849E+00
   24 -.31786683178792E+00
   25 0.13989843412416E-14
 Sym=   23a   
 Ene= 0.38788505972833E+01
 Spin= Alpha
 Occup= 0.000000
    1 0.12332786953144E+00
    2 0.13632123095632E+00
    3 -.23030699988300E+01
    4 -.30830915077884E-14
    5 0.42541768678655E+00
    6 -.42005569198115E-16
    7 0.27628995011991E-13
    8 0.92569028357762E+00
    9 0.12133372570917E-14
   10 -.54752646918144E+00
   11 -.69625505813373E-01
   12 0.61715197499482E+00
   13 -.22863192341323E-13
   14 0.33234804706712E-14
   15 -.21696767584880E-14
   16 0.12751430971197E+01
   17 0.19220196915725E+00
   18 -.62380465112601E+00
   19 0.50391643164399E+00
   20 -.35660278812682E-14
   21 0.12751430971197E+01
   22 0.19220196915726E+00
   23 0.62380465112604E+00
   24 0.50391643164400E+00
   25 0.52113117719720E-15
 Sym=   24a   
 Ene= 0.41594875278723E+01
 Spin= Alpha
 Occup= 0.000000
    1 0.81575533762186E-14
    2 0.20611007897395E-13
    3 0.11452754485602E-12
    4 0.49447477950490E+00
    5 -.30557710209141E-13
    6 -.40928489484339E-18
    7 0.11610710881122E+01
    8 -.47292368045120E-13
    9 -.17787176156992E-16
   10 0.15494795368101E-13
   11 0.66393304394873E-14
   12 -.22134125807589E-13
   13 -.76815777302520E+00
   14 0.13542091692628E-16
   15 0.13350462305180E-16
   16 -.11249696585745E+01
   17 -.29218775305734E+00
   18 0.61612730977898E+00
   19 -.49741603888003E+00
   20 0.26682616040714E-16
   21 0.11249696585744E+01
   22 0.29218775305732E+00
   23 0.61612730977892E+00
   24 0.49741603887998E+00
   25 0.55216440543859E-17
[FREQ]
 0.00000000000000E+00
 0.00000000000000E+00
 0.00000000000000E+00
 0.00000000000000E+00
 0.00000000000000E+00
 0.00000000000000E+00
 0.17757500000000E+04
 0.41134000000000E+04
 0.42116700000000E+04
[INT]
 0.00000000000000E+00
 0.00000000000000E+00
 0.00000000000000E+00
 0.00000000000000E+00
 0.00000000000000E+00
 0.00000000000000E+00
 0.80675920000000E+02
 0.21171070000000E+02
 0.60446760000000E+02
[FR-COORD]
 o  0.10000000000000E-13 -.15290325402501E+00 0.00000000000000E+00
 h  0.14149695076483E+01 -.12463566660075E+01 0.00000000000000E+00
 h  -.14149695076483E+01 -.12463566660075E+01 0.00000000000000E+00
[FR-NORM-COORD]
 vibration    1
 -.22778200740000E+00 0.43004935190000E+00 0.00000000000000E+00
 0.10454948720000E+00 0.86009870390000E+00 0.39267557700000E-01
 0.10454948720000E+00 0.00000000000000E+00 0.00000000000000E+00
 vibration    2
 0.75513951300000E-01 -.35429152700000E-01 0.00000000000000E+00
 0.47604938160000E+00 0.48287863660000E+00 0.11105970000000E-03
 0.47604938160000E+00 -.55373694190000E+00 0.00000000000000E+00
 vibration    3
 0.18922703000000E-02 -.36679167000000E-02 -.21055059450000E+00
 -.94220490000000E-03 -.73358333000000E-02 0.97754581630000E+00
 -.94220490000000E-03 0.00000000000000E+00 0.00000000000000E+00
 vibration    4
 0.18577750000000E-02 -.36010520000000E-02 0.28081463640000E+00
 -.92502890000000E-03 -.72021041000000E-02 0.95972555420000E+00
 -.92502890000000E-03 0.00000000000000E+00 0.00000000000000E+00
 vibration    5
 0.00000000000000E+00 0.00000000000000E+00 0.00000000000000E+00
 0.00000000000000E+00 0.00000000000000E+00 0.00000000000000E+00
 0.00000000000000E+00 0.00000000000000E+00 0.10000000000000E+01
 vibration    6
 -.49227322140000E+00 -.28408096710000E+00 0.00000000000000E+00
 -.10908131410000E+00 0.21178365640000E+00 -.41475680000000E-03
 -.10908131410000E+00 -.77994559060000E+00 0.00000000000000E+00
 vibration    7
 0.00000000000000E+00 -.70201502100000E-01 0.00000000000000E+00
 0.43257280470000E+00 0.55715046730000E+00 0.00000000000000E+00
 -.43257280470000E+00 0.55715046730000E+00 0.00000000000000E+00
 vibration    8
 0.00000000000000E+00 0.50511621100000E-01 0.00000000000000E+00
 0.58139253950000E+00 -.40088277980000E+00 0.00000000000000E+00
 -.58139253950000E+00 -.40088277980000E+00 0.00000000000000E+00
 vibration    9
 0.70324263800000E-01 0.00000000000000E+00 0.00000000000000E+00
 -.55812475910000E+00 0.43130499910000E+00 0.00000000000000E+00
 -.55812475910000E+00 -.43130499910000E+00 0.00000000000000E+00
[GEOCONV]
energy
-.76018311759900E+02
-.76025304406400E+02
-.76027012845900E+02
-.76027053396500E+02
-.76027053507300E+02
max-force
0.10410400000000E+00
0.38336000000000E-01
0.66900000000000E-02
0.26700000000000E-03
0.22000000000000E-04
[GEOMETRIES] XYZ
     3

 o  0.00000000000000E+00 0.00000000000000E+00 0.00000000000000E+00
 h  0.70000005377216E+00 -.70000005377216E+00 0.00000000000000E+00
 h  -.70000005377216E+00 -.70000005377216E+00 0.00000000000000E+00
     3

 o  -.52917724924000E-14 -.43747888139197E-01 0.00000000000000E+00
 h  0.71742259928564E+00 -.67812610970256E+00 0.00000000000000E+00
 h  -.71742259928564E+00 -.67812610970256E+00 0.00000000000000E+00
     3

 o  0.00000000000000E+00 -.79056767444317E-01 0.00000000000000E+00
 h  0.74266027038620E+00 -.66047167005000E+00 0.00000000000000E+00
 h  -.74266027038620E+00 -.66047167005000E+00 0.00000000000000E+00
     3

 o  -.52917724924000E-14 -.80631683123911E-01 0.00000000000000E+00
 h  0.74850057149511E+00 -.65968421221020E+00 0.00000000000000E+00
 h  -.74850057149511E+00 -.65968421221020E+00 0.00000000000000E+00
     3

 o  -.52917724924000E-14 -.80932716934546E-01 0.00000000000000E+00
 h  0.74878559219399E+00 -.65953369530489E+00 0.00000000000000E+00
 h  -.74878559219399E+00 -.65953369530489E+00 0.00000000000000E+00
